                               Psi4 1.1rc2.dev3

  ==> Input File <==

--------------------------------------------------------------------------

# PYTHONPATH must include directory above plugin directory.
#     Define either externally or here, then import plugin.
sys.path.insert(0, '/edfs/users/daniel/deprince-group/other_codes')
import newpade

molecule {
0 2
H
}

set {
  basis sto-3g
  reference rohf
}

set pade {
  print 1
  filename TIMEX5
  window 1
  damping 0.005
  min_quocient 1e5
  initial_freq 0.0
  final_freq 40.0
  delta_freq 0.005
}

energy('newpade')

newpade.exampleFN()
--------------------------------------------------------------------------

    Molecular point group: d2h
    Geometry (in Angstrom), charge = 0, multiplicity = 2:

       Center              X                  Y                   Z               Mass
    ------------   -----------------  -----------------  -----------------  -----------------
           H          0.000000000000     0.000000000000     0.000000000000     1.007825032070

  Charge       = 0
  Multiplicity = 2
  Basis Set: STO-3G
    Blend: STO-3G

    Orbital Energies (a.u.)
    -----------------------

    Doubly Occupied:

    Singly Occupied:

       1Ag    -0.079279

  @ROHF Final Energy:    -0.46658184955728

   => Energetics <=

    Nuclear Repulsion Energy =              0.0000000000000000
    One-Electron Energy =                  -0.4665818495572753
    Two-Electron Energy =                   0.0000000000000000
    DFT Exchange-Correlation Energy =       0.0000000000000000
    Empirical Dispersion Energy =           0.0000000000000000
    PCM Polarization Energy =               0.0000000000000000
    EFP Energy =                            0.0000000000000000
    Total Energy =                         -0.4665818495572753
*** Psi4 exiting successfully. Buy a developer a beer!
